Program Version,EnergyPlus, Version 9.0.1-bb7ca4f0da, YMD=2020.03.23 20:56
1,5,Environment Title[],Latitude[deg],Longitude[deg],Time Zone[],Elevation[m]
2,8,Day of Simulation[],Month[],Day of Month[],DST Indicator[1=yes 0=no],Hour[],StartMinute[],EndMinute[],DayType
3,5,Cumulative Day of Simulation[],Month[],Day of Month[],DST Indicator[1=yes 0=no],DayType  ! When Daily Report Variables Requested
4,2,Cumulative Days of Simulation[],Month[]  ! When Monthly Report Variables Requested
5,1,Cumulative Days of Simulation[] ! When Run Period Report Variables Requested
6,1,Calendar Year of Simulation[] ! When Annual Report Variables Requested
7,1,Environment,Site Outdoor Air Drybulb Temperature [C] !TimeStep
181,1,ZN001:WALL001:WIN001,Surface Outside Face Incident Solar Radiation Rate per Area [W/m2] !TimeStep
182,1,ZN001:WALL001:WIN001,Surface Outside Face Beam Solar Incident Angle Cosine Value [] !TimeStep
183,1,ZN001:WALL001:WIN001,Surface Window Total Glazing Layers Absorbed Solar Radiation Rate [W] !TimeStep
184,1,ZN001:WALL001:WIN001,Surface Window Transmitted Solar Radiation Rate [W] !TimeStep
185,1,ZN001:WALL001:WIN001,Surface Window Heat Gain Rate [W] !TimeStep
186,1,ZN001:WALL001:WIN001,Surface Window Heat Loss Rate [W] !TimeStep
187,1,ZN001:WALL001:WIN001,Surface Window Shading Device Absorbed Solar Radiation Rate [W] !TimeStep
188,1,ZN001:WALL001:WIN001,Surface Window System Solar Transmittance [] !TimeStep
189,1,ZN001:WALL001:WIN001,Surface Window System Solar Reflectance [] !TimeStep
190,1,ZN001:WALL001:WIN001,Surface Window System Solar Absorptance [] !TimeStep
191,1,ZN001:WALL001:WIN001,Surface Shading Device Is On Time Fraction [] !TimeStep
192,1,ZN001:WALL001:WIN001,Surface Window Blind Slat Angle [deg] !TimeStep
193,1,WEST ZONE,Zone Mean Radiant Temperature [C] !TimeStep
194,1,EAST ZONE,Zone Mean Radiant Temperature [C] !TimeStep
195,1,NORTH ZONE,Zone Mean Radiant Temperature [C] !TimeStep
196,1,WEST ZONE,Zone Mean Air Temperature [C] !TimeStep
197,1,EAST ZONE,Zone Mean Air Temperature [C] !TimeStep
198,1,NORTH ZONE,Zone Mean Air Temperature [C] !TimeStep
286,1,WEST ZONE,Zone Air System Sensible Heating Rate [W] !TimeStep
287,1,WEST ZONE,Zone Air System Sensible Cooling Rate [W] !TimeStep
288,1,WEST ZONE,Zone Air Temperature [C] !TimeStep
289,1,WEST ZONE,Zone Air Humidity Ratio [] !TimeStep
328,1,EAST ZONE,Zone Air System Sensible Heating Rate [W] !TimeStep
329,1,EAST ZONE,Zone Air System Sensible Cooling Rate [W] !TimeStep
330,1,EAST ZONE,Zone Air Temperature [C] !TimeStep
331,1,EAST ZONE,Zone Air Humidity Ratio [] !TimeStep
370,1,NORTH ZONE,Zone Air System Sensible Heating Rate [W] !TimeStep
371,1,NORTH ZONE,Zone Air System Sensible Cooling Rate [W] !TimeStep
372,1,NORTH ZONE,Zone Air Temperature [C] !TimeStep
373,1,NORTH ZONE,Zone Air Humidity Ratio [] !TimeStep
563,1,WEST ZONE,Zone Thermal Comfort Fanger Model PMV [] !TimeStep
564,1,EAST ZONE,Zone Thermal Comfort Fanger Model PMV [] !TimeStep
565,1,NORTH ZONE,Zone Thermal Comfort Fanger Model PMV [] !TimeStep
End of Data Dictionary
1,CHICAGO_IL_USA ANNUAL HEATING 99% DESIGN CONDITIONS DB,  39.74,-105.18,  -7.00,1829.00
2,1, 1,21, 0, 1, 0.00,10.00,WinterDesignDay
7,-17.3
181,0.0
182,0.0
183,0.0
184,0.0
185,0.0
186,1144.6807193349444
187,0.0
188,0.0
189,0.0
190,0.0
191,0.0
192,0.0
193,5.964252997973705
194,6.107363401981166
195,5.708767385460164
196,14.999999999999649
197,14.999999999999373
198,14.999999999999642
563,-1.8613773345619727
564,-1.85032911797958
565,-1.8810615506039524
286,3527.070190226296
287,0.0
288,14.999999999999649
289,0.013344152763468299
328,3594.9524837441097
329,0.0
330,14.999999999999373
331,0.013344152763468299
370,5228.682994405126
371,0.0
372,14.999999999999642
373,0.013344152763468299
2,1, 1,21, 0, 1,10.00,20.00,WinterDesignDay
7,-17.3
181,0.0
182,0.0
183,0.0
184,0.0
185,0.0
186,1144.0067615788726
187,0.0
188,0.0
189,0.0
190,0.0
191,0.0
192,0.0
193,5.9403849856640769
194,6.0824317948946249
195,5.684733486101866
196,14.999999999999643
197,15.000000000000231
198,14.999999999999642
563,-1.8632184165077024
564,-1.8522549962071145
565,-1.8829106733614796
286,3538.4667211465277
287,0.0
288,14.999999999999643
289,0.013344152763468299
328,3607.266502380916
329,0.0
330,15.000000000000231
331,0.013344153182053741
370,5245.197189629678
371,0.0
372,14.999999999999642
373,0.013344152763468299
2,1, 1,21, 0, 1,20.00,30.00,WinterDesignDay
7,-17.3
181,0.0
182,0.0
183,0.0
184,0.0
185,0.0
186,1143.346824900802
187,0.0
188,0.0
189,0.0
190,0.0
191,0.0
192,0.0
193,5.917007811987869
194,6.058027577041951
195,5.661219636713178
196,14.999999999999645
197,15.00000000000034
198,14.999999999999642
563,-1.8650212093670898
564,-1.8541396576068965
565,-1.88471935203109
286,3549.6080633509129
287,0.0
288,14.999999999999645
289,0.013344152763468299
328,3619.2977459134519
329,0.0
330,15.00000000000034
331,0.013344153182053741
370,5261.319550420632
371,0.0
372,14.999999999999642
373,0.013344152763468299
2,1, 1,21, 0, 1,30.00,40.00,WinterDesignDay
7,-17.3
181,0.0
182,0.0
183,0.0
184,0.0
185,0.0
186,1142.7004633340917
187,0.0
188,0.0
189,0.0
190,0.0
191,0.0
192,0.0
193,5.8941064068495419
194,6.034134576419396
195,5.638209375926509
196,14.999999999999332
197,15.000000000000043
198,14.999999999999643
563,-1.8667869016252779
564,-1.8559844030032476
565,-1.8864888808053162
286,3560.5026458972827
287,0.0
288,14.999999999999332
289,0.013344152763468299
328,3631.0554353702466
329,0.0
330,15.000000000000043
331,0.013344153182053741
370,5277.063328096573
371,0.0
372,14.999999999999643
373,0.013344152763468299
2,1, 1,21, 0, 1,40.00,50.00,WinterDesignDay
7,-17.3
181,0.0
182,0.0
183,0.0
184,0.0
185,0.0
186,1142.0672514191707
187,0.0
188,0.0
189,0.0
190,0.0
191,0.0
192,0.0
193,5.871666367950875
194,6.0107373238089709
195,5.615686968058491
196,14.999999999999919
197,15.000000000000318
198,14.999999999999638
563,-1.8685166286849338
564,-1.8577904436082343
565,-1.888220496309267
286,3571.158523110205
287,0.0
288,14.999999999999919
289,0.013344152763468299
328,3642.548392578716
329,0.0
330,15.000000000000318
331,0.013344153182053741
370,5292.441190924061
371,0.0
372,14.999999999999638
373,0.013344152763468299
2,1, 1,21, 0, 1,50.00,60.00,WinterDesignDay
7,-17.3
181,0.0
182,0.0
183,0.0
184,0.0
185,0.0
186,1141.4467829719977
187,0.0
188,0.0
189,0.0
190,0.0
191,0.0
192,0.0
193,5.849673921027832
194,5.987821010698834
195,5.593637360576567
196,14.999999999999674
197,15.000000000000354
198,14.99999999999964
563,-1.8702114760423499
564,-1.8595589491200975
565,-1.889915380995015
286,3581.5833954766596
287,0.0
288,14.999999999999674
289,0.013344152763468299
328,3653.785062714309
329,0.0
330,15.000000000000354
331,0.013344153182053741
370,5307.465256416065
371,0.0
372,14.99999999999964
373,0.013344152763468299
2,1, 1,21, 0, 2, 0.00,10.00,WinterDesignDay
7,-17.3
181,0.0
182,0.0
183,0.0
184,0.0
185,0.0
186,1140.838669955503
187,0.0
188,0.0
189,0.0
190,0.0
191,0.0
192,0.0
193,5.828242250984502
194,5.965521455478398
195,5.5721875945321319
196,14.999999999999329
197,15.000000000000047
198,14.999999999999638
563,-1.8718627468638
564,-1.861279467347859
565,-1.8915637970363629
286,3591.739836107986
287,0.0
288,14.999999999999329
289,0.013344152763468299
328,3664.7179057917589
329,0.0
330,15.000000000000047
331,0.013344153182053741
370,5322.074223532718
371,0.0
372,14.999999999999638
373,0.013344152763468299
2,1, 1,21, 0, 2,10.00,20.00,WinterDesignDay
7,-17.3
181,0.0
182,0.0
183,0.0
184,0.0
185,0.0
186,1140.2465977701796
187,0.0
188,0.0
189,0.0
190,0.0
191,0.0
192,0.0
193,5.807161123691182
194,5.943588829865323
195,5.551099563182308
196,14.999999999999917
197,15.000000000000318
198,14.999999999999634
563,-1.8734866621010536
564,-1.8629712993849986
565,-1.8931840670034633
286,3601.688248584808
287,0.0
288,14.999999999999917
289,0.013344152763468299
328,3675.421688186807
329,0.0
330,15.000000000000318
331,0.013344153182053741
370,5336.367609070496
371,0.0
372,14.999999999999634
373,0.013344152763468299
2,1, 1,21, 0, 2,20.00,30.00,WinterDesignDay
7,-17.3
181,0.0
182,0.0
183,0.0
184,0.0
185,0.0
186,1139.6632852356602
187,0.0
188,0.0
189,0.0
190,0.0
191,0.0
192,0.0
193,5.786475291990243
194,5.922079099340523
195,5.530427093238183
196,14.999999999999674
197,15.000000000000357
198,14.999999999999633
563,-1.8750797926503
564,-1.8646301483414234
565,-1.894772074225234
286,3611.4403471432526
287,0.0
288,14.999999999999674
289,0.013344152763468299
328,3685.9095255530758
329,0.0
330,15.000000000000357
331,0.013344153182053741
370,5350.362940843185
371,0.0
372,14.999999999999633
373,0.013344152763468299
2,1, 1,21, 0, 2,30.00,40.00,WinterDesignDay
7,-17.3
181,0.0
182,0.0
183,0.0
184,0.0
185,0.0
186,1139.0910223833308
187,0.0
188,0.0
189,0.0
190,0.0
191,0.0
192,0.0
193,5.766179980584175
194,5.9009880610042269
195,5.510165241698254
196,14.999999999999329
197,15.000000000000045
198,14.999999999999638
563,-1.876642525196173
564,-1.866256359425535
565,-1.8963282182516055
286,3620.9937843446234
287,0.0
288,14.999999999999329
289,0.013344152763468299
328,3696.1773728900559
329,0.0
330,15.000000000000045
331,0.013344153182053741
370,5364.055539702721
371,0.0
372,14.999999999999638
373,0.013344152763468299
2,1, 1,21, 0, 2,40.00,50.00,WinterDesignDay
7,-17.3
181,0.0
182,0.0
183,0.0
184,0.0
185,0.0
186,1138.5295950264204
187,0.0
188,0.0
189,0.0
190,0.0
191,0.0
192,0.0
193,5.746266734817539
194,5.880306882527384
195,5.490304767538261
196,14.999999999999917
197,14.999999999999688
198,14.99999999999964
563,-1.8781755289854903
564,-1.8678506339933039
565,-1.8978532279200398
286,3630.3528309321447
287,0.0
288,14.999999999999917
289,0.013344152763468299
328,3706.22962532343
329,0.0
330,14.999999999999688
331,0.013344152763468299
370,5377.4520078388909
371,0.0
372,14.99999999999964
373,0.013344152763468299
2,1, 1,21, 0, 2,50.00,60.00,WinterDesignDay
7,-17.3
181,0.0
182,0.0
183,0.0
184,0.0
185,0.0
186,1137.9787243708659
187,0.0
188,0.0
189,0.0
190,0.0
191,0.0
192,0.0
193,5.726726250803529
194,5.860025637544942
195,5.470835462341627
196,14.99999999999967
197,14.999999999999325
198,14.999999999999636
563,-1.8796795377538647
564,-1.8694137679269023
565,-1.8993479053777225
286,3639.52258232008
287,0.0
288,14.99999999999967
289,0.013344152763468299
328,3716.071788976914
329,0.0
330,14.999999999999325
331,0.013344152763468299
370,5390.560361066411
371,0.0
372,14.999999999999636
373,0.013344152763468299
2,1, 1,21, 0, 3, 0.00,10.00,WinterDesignDay
7,-17.3
181,0.0
182,0.0
183,0.0
184,0.0
185,0.0
186,1137.4381320365879
187,0.0
188,0.0
189,0.0
190,0.0
191,0.0
192,0.0
193,5.707549100888863
194,5.840134191850919
195,5.451746982186152
196,14.99999999999964
197,14.999999999999597
198,14.999999999999634
563,-1.8811552938662129
564,-1.8709465385729543
565,-1.900813062192352
286,3648.508262688278
287,0.0
288,14.99999999999964
289,0.013344152763468299
328,3725.70958504186
329,0.0
330,14.999999999999597
331,0.013344152763468299
370,5403.388847015516
371,0.0
372,14.999999999999634
373,0.013344152763468299
2,1, 1,21, 0, 3,10.00,20.00,WinterDesignDay
7,-17.3
181,0.0
182,0.0
183,0.0
184,0.0
185,0.0
186,1136.9075463901027
187,0.0
188,0.0
189,0.0
190,0.0
191,0.0
192,0.0
193,5.688725978706884
194,5.820622501952135
195,5.433029121427154
196,14.99999999999964
197,14.999999999999945
198,14.99999999999963
563,-1.882603529481562
564,-1.8724497488462746
565,-1.902249498365048
286,3657.3150338918969
287,0.0
288,14.99999999999964
289,0.013344152763468299
328,3735.148702640943
329,0.0
330,14.999999999999945
331,0.013344152763468299
370,5415.945624434625
371,0.0
372,14.99999999999963
373,0.013344152763468299
2,1, 1,21, 0, 3,20.00,30.00,WinterDesignDay
7,-17.3
181,0.0
182,0.0
183,0.0
184,0.0
185,0.0
186,1136.3867035331769
187,0.0
188,0.0
189,0.0
190,0.0
191,0.0
192,0.0
193,5.670247798105331
194,5.801480737332467
195,5.414671921949967
196,14.99999999999963
197,14.999999999999674
198,14.99999999999963
563,-1.8840249589792107
564,-1.8739241731257375
565,-1.9036579939882668
286,3665.9479288464428
287,0.0
288,14.99999999999963
289,0.013344152763468299
328,3744.3947106935149
329,0.0
330,14.999999999999674
331,0.013344152763468299
370,5428.23865212245
371,0.0
372,14.99999999999963
373,0.013344152763468299
2,1, 1,21, 0, 3,30.00,40.00,WinterDesignDay
7,-17.3
181,0.0
182,0.0
183,0.0
184,0.0
185,0.0
186,1135.8753478347254
187,0.0
188,0.0
189,0.0
190,0.0
191,0.0
192,0.0
193,5.652105735604368
194,5.782699334585467
195,5.396665719784352
196,14.999999999999634
197,14.999999999999315
198,14.999999999999633
563,-1.88542027573446
564,-1.8753705643118377
565,-1.9050393057168354
286,3674.41182562825
287,0.0
288,14.999999999999634
289,0.013344152763468299
328,3753.4530220487188
329,0.0
330,14.999999999999315
331,0.013344152763468299
370,5440.275645558177
371,0.0
372,14.999999999999633
373,0.013344152763468299
2,1, 1,21, 0, 3,40.00,50.00,WinterDesignDay
7,-17.3
181,0.0
182,0.0
183,0.0
184,0.0
185,0.0
186,1135.373232209069
187,0.0
188,0.0
189,0.0
190,0.0
191,0.0
192,0.0
193,5.634291247297694
194,5.764269020497225
195,5.3790011634136649
196,14.99999999999963
197,14.999999999999913
198,14.999999999999629
563,-1.886790150861046
564,-1.8767896520964554
565,-1.9063941654111203
286,3682.711437991503
287,0.0
288,14.99999999999963
289,0.013344152763468299
328,3762.328878906591
329,0.0
330,14.999999999999913
331,0.013344152763468299
370,5452.064060714902
371,0.0
372,14.999999999999629
373,0.013344152763468299
2,1, 1,21, 0, 3,50.00,60.00,WinterDesignDay
7,-17.3
181,0.0
182,0.0
183,0.0
184,0.0
185,0.0
186,1134.880118168482
187,0.0
188,0.0
189,0.0
190,0.0
191,0.0
192,0.0
193,5.6167960730146408
194,5.746180819530103
195,5.361669217954055
196,14.999999999999633
197,14.99999999999935
198,14.999999999999949
563,-1.8881352329336286
564,-1.8781821424337835
565,-1.9077232798640494
286,3690.8513134702418
287,0.0
288,14.999999999999633
289,0.013344152763468299
328,3771.0273481970054
329,0.0
330,14.99999999999935
331,0.013344152763468299
370,5463.611090452792
371,0.0
372,14.999999999999949
373,0.013344152763468299
2,1, 1,21, 0, 4, 0.00,10.00,WinterDesignDay
7,-17.3
181,0.0
182,0.0
183,0.0
184,0.0
185,0.0
186,1134.3957757153208
187,0.0
188,0.0
189,0.0
190,0.0
191,0.0
192,0.0
193,5.599612233781519
194,5.728426053036679
195,5.344661161912782
196,14.99999999999963
197,14.999999999999595
198,14.999999999999672
563,-1.8894561482226813
564,-1.879548717647049
565,-1.9090273310946325
286,3698.8358352809616
287,0.0
288,14.99999999999963
289,0.013344152763468299
328,3779.553322011966
329,0.0
330,14.999999999999595
331,0.013344152763468299
370,5474.923667224249
371,0.0
372,14.999999999999672
373,0.013344152763468299
2,1, 1,21, 0, 4,10.00,20.00,WinterDesignDay
7,-17.3
181,0.0
182,0.0
183,0.0
184,0.0
185,0.0
186,1133.9199831352765
187,0.0
188,0.0
189,0.0
190,0.0
191,0.0
192,0.0
193,5.5827320256702299
194,5.710996333979816
195,5.327968579981625
196,14.999999999999629
197,14.999999999999627
198,14.999999999999636
563,-1.8907535012062638
564,-1.8808900368774462
565,-1.91175277764662
286,3706.6692262070107
287,0.0
288,14.999999999999629
289,0.013344152763468299
328,3787.9115207004999
329,0.0
330,14.999999999999627
331,0.013344152763468299
370,5486.008469066663
371,0.0
372,14.999999999999636
373,0.013344152763468299
2,1, 1,21, 0, 4,20.00,30.00,WinterDesignDay
7,-17.3
181,0.0
182,0.0
183,0.0
184,0.0
185,0.0
186,1133.4525267357249
187,0.0
188,0.0
189,0.0
190,0.0
191,0.0
192,0.0
193,5.566148011705057
194,5.693883559209098
195,5.311583353742364
196,14.999999999999954
197,14.999999999999954
198,14.999999999999626
563,-1.8920278752287958
564,-1.8822067367210045
565,-1.9130233024661537
286,3714.355553520877
287,0.0
288,14.999999999999954
289,0.013344152763468299
328,3796.106497411537
329,0.0
330,14.999999999999954
331,0.013344152763468299
370,5496.871927295475
371,0.0
372,14.999999999999626
373,0.013344152763468299
2,1, 1,21, 0, 4,30.00,40.00,WinterDesignDay
7,-17.3
181,0.0
182,0.0
183,0.0
184,0.0
185,0.0
186,1132.993200554755
187,0.0
188,0.0
189,0.0
190,0.0
191,0.0
192,0.0
193,5.549853012770317
194,5.67707990045142
195,5.295497651338117
196,14.99999999999967
197,14.999999999999675
198,14.999999999999949
563,-1.8932798332339656
564,-1.883499431960308
565,-1.9142703977190403
286,3721.8987344271538
287,0.0
288,14.99999999999967
289,0.013344152763468299
328,3804.1426433755316
329,0.0
330,14.999999999999675
331,0.013344152763468299
370,5507.52023505012
371,0.0
372,14.999999999999949
373,0.013344152763468299
2,1, 1,21, 0, 4,40.00,50.00,WinterDesignDay
7,-17.3
181,0.0
182,0.0
183,0.0
184,0.0
185,0.0
186,1132.5418060582452
187,0.0
188,0.0
189,0.0
190,0.0
191,0.0
192,0.0
193,5.533840098065322
194,5.660577794684681
195,5.2797039167164458
196,14.999999999999636
197,14.999999999999308
198,14.99999999999967
563,-1.8945099185315076
564,-1.8847687163429697
565,-1.9154946603920982
286,3729.302541733773
287,0.0
288,14.999999999999636
289,0.013344152763468299
328,3812.024193558977
329,0.0
330,14.999999999999308
331,0.013344152763468299
370,5517.959356188825
371,0.0
372,14.99999999999967
373,0.013344152763468299
2,1, 1,21, 0, 4,50.00,60.00,WinterDesignDay
7,-17.3
181,0.0
182,0.0
183,0.0
184,0.0
185,0.0
186,1132.0981518342724
187,0.0
188,0.0
189,0.0
190,0.0
191,0.0
192,0.0
193,5.518102575432173
194,5.64436993429031
195,5.26419485879649
196,14.999999999999629
197,14.999999999999586
198,14.999999999999638
563,-1.8957186555704704
564,-1.8860151633734968
565,-1.9166966663589056
286,3736.57060957025
287,0.0
288,14.999999999999629
289,0.013344152763468299
328,3819.7552324463724
329,0.0
330,14.999999999999586
331,0.013344152763468299
370,5528.195034262016
371,0.0
372,14.999999999999638
373,0.013344152763468299
2,1, 1,21, 0, 5, 0.00,10.00,WinterDesignDay
7,-17.3
181,0.0
182,0.0
183,0.0
184,0.0
185,0.0
186,1131.662053290933
187,0.0
188,0.0
189,0.0
190,0.0
191,0.0
192,0.0
193,5.50263398175268
194,5.628449257220406
195,5.248963440766894
196,14.999999999999952
197,14.999999999999947
198,14.999999999999633
563,-1.8969065507065073
564,-1.887239327102955
565,-1.9178769712418867
286,3743.706439060473
287,0.0
288,14.999999999999952
289,0.013344152763468299
328,3827.339699826589
329,0.0
330,14.999999999999947
331,0.013344152763468299
370,5538.232801383339
371,0.0
372,14.999999999999633
373,0.013344152763468299
2,1, 1,21, 0, 5,10.00,20.00,WinterDesignDay
7,-17.3
181,0.0
182,0.0
183,0.0
184,0.0
185,0.0
186,1131.2333323619342
187,0.0
188,0.0
189,0.0
190,0.0
191,0.0
192,0.0
193,5.487428073532948
194,5.61280893732155
195,5.234002869634391
196,14.999999999999672
197,14.999999999999672
198,14.999999999999624
563,-1.8980740929520226
564,-1.888441742904297
565,-1.9190361112532646
286,3750.7134038759197
287,0.0
288,14.999999999999672
289,0.013344152763468299
328,3834.781396497745
329,0.0
330,14.999999999999672
331,0.013344152763468299
370,5548.077986918774
371,0.0
372,14.999999999999624
373,0.013344152763468299
2,1, 1,21, 0, 5,20.00,30.00,WinterDesignDay
7,-17.3
181,0.0
182,0.0
183,0.0
184,0.0
185,0.0
186,1130.811817220223
187,0.0
188,0.0
189,0.0
190,0.0
191,0.0
192,0.0
193,5.472478817749735
194,5.597442374900478
195,5.219306586092267
196,14.999999999999633
197,14.99999999999963
198,14.99999999999963
563,-1.8992217547053275
564,-1.8896229282272102
565,-1.920174604009011
286,3757.5947556391977
287,0.0
288,14.999999999999633
289,0.013344152763468299
328,3842.0839898380174
329,0.0
330,14.99999999999963
331,0.013344152763468299
370,5557.735725920167
371,0.0
372,14.99999999999963
373,0.013344152763468299
2,1, 1,21, 0, 5,30.00,40.00,WinterDesignDay
7,-17.3
181,0.0
182,0.0
183,0.0
184,0.0
185,0.0
186,1130.3973420032554
187,0.0
188,0.0
189,0.0
190,0.0
191,0.0
192,0.0
193,5.457780382999165
194,5.582343187581437
195,5.204868254746026
196,14.999999999999629
197,14.999999999999626
198,14.999999999999626
563,-1.9003499924542398
564,-1.8907833833282555
565,-1.921292949313489
286,3764.3536291457214
287,0.0
288,14.999999999999629
289,0.013344152763468299
328,3849.251019213677
329,0.0
330,14.999999999999626
331,0.013344152763468299
370,5567.2109672814
371,0.0
372,14.999999999999626
373,0.013344152763468299
2,1, 1,21, 0, 5,40.00,50.00,WinterDesignDay
7,-17.3
181,0.0
182,0.0
183,0.0
184,0.0
185,0.0
186,1129.9897465486588
187,0.0
188,0.0
189,0.0
190,0.0
191,0.0
192,0.0
193,5.443327130972817
194,5.567505201482856
195,5.190681754714573
196,14.999999999999952
197,14.999999999999947
198,14.999999999999949
563,-1.9014592474535852
564,-1.8919235919758353
565,-1.9223916299130704
286,3770.993047401752
287,0.0
288,14.999999999999952
289,0.013344152763468299
328,3856.2859012118449
329,0.0
330,14.999999999999947
331,0.013344152763468299
370,5576.508481595389
371,0.0
372,14.999999999999949
373,0.013344152763468299
2,1, 1,21, 0, 5,50.00,60.00,WinterDesignDay
7,-17.3
181,0.0
182,0.0
183,0.0
184,0.0
185,0.0
186,1129.5888761409354
187,0.0
188,0.0
189,0.0
190,0.0
191,0.0
192,0.0
193,5.429113608272744
194,5.552922442727463
195,5.1767411706131158
196,14.99999999999967
197,14.999999999999666
198,14.999999999999663
563,-1.9025499463751577
564,-1.893044022126974
565,-1.9234711122187916
286,3777.515926461955
287,0.0
288,14.99999999999967
289,0.013344152763468299
328,3863.1919346812994
329,0.0
330,14.999999999999666
331,0.013344152763468299
370,5585.632868706623
371,0.0
372,14.999999999999663
373,0.013344152763468299
2,1, 1,21, 0, 6, 0.00,10.00,WinterDesignDay
7,-17.3
181,0.0
182,0.0
183,0.0
184,0.0
185,0.0
186,1129.1945812696868
187,0.0
188,0.0
189,0.0
190,0.0
191,0.0
192,0.0
193,5.415134538567625
194,5.538589129290385
195,5.163040783916324
196,14.999999999999629
197,14.999999999999629
198,14.999999999999629
563,-1.9036225019302227
564,-1.894145126577186
565,-1.9245318469982534
286,3783.925080073737
287,0.0
288,14.999999999999629
289,0.013344152763468299
328,3869.972305585264
329,0.0
330,14.999999999999629
331,0.013344152763468299
370,5594.588564961496
371,0.0
372,14.999999999999629
373,0.013344152763468299
2,1, 1,21, 0, 6,10.00,20.00,WinterDesignDay
7,-17.3
181,0.0
182,0.0
183,0.0
184,0.0
185,0.0
186,1128.8067173994578
187,0.0
188,0.0
189,0.0
190,0.0
191,0.0
192,0.0
193,5.401384815087795
194,5.524499663184278
195,5.149575064695947
196,14.999999999999952
197,14.999999999999947
198,14.999999999999954
563,-1.9046773134644497
564,-1.8952273435828285
565,-1.9255742700363692
286,3790.223224118643
287,0.0
288,14.999999999999952
289,0.013344152763468299
328,3876.6300916552916
329,0.0
330,14.999999999999947
331,0.013344152763468299
370,5603.379850147912
371,0.0
372,14.999999999999954
373,0.013344152763468299
2,1, 1,21, 0, 6,20.00,30.00,WinterDesignDay
7,-17.3
181,0.0
182,0.0
183,0.0
184,0.0
185,0.0
186,1128.4251447489456
187,0.0
188,0.0
189,0.0
190,0.0
191,0.0
192,0.0
193,5.387859493454913
194,5.510648622975929
195,5.136338663723191
196,14.99999999999967
197,14.999999999999665
198,14.999999999999663
563,-1.9057147675263313
564,-1.8962910974567773
565,-1.926598802767471
286,3796.412980866403
287,0.0
288,14.99999999999967
289,0.013344152763468299
328,3883.1682668611076
329,0.0
330,14.999999999999665
331,0.013344152763468299
370,5612.010854148322
371,0.0
372,14.999999999999663
373,0.013344152763468299
2,1, 1,21, 0, 6,30.00,40.00,WinterDesignDay
7,-17.3
181,0.0
182,0.0
183,0.0
184,0.0
185,0.0
186,1128.0497280823325
187,0.0
188,0.0
189,0.0
190,0.0
191,0.0
192,0.0
193,5.374553784834342
194,5.497030756626865
195,5.123326404925035
196,14.999999999999629
197,14.999999999999629
198,14.999999999999629
563,-1.906735238410108
564,-1.8973367991381736
565,-1.9276058528784879
286,3802.496883037802
287,0.0
288,14.999999999999629
289,0.013344152763468299
328,3889.5897056907826
329,0.0
330,14.999999999999629
331,0.013344152763468299
370,5620.485563300281
371,0.0
372,14.999999999999629
373,0.013344152763468299
2,1, 1,21, 0, 6,40.00,50.00,WinterDesignDay
7,-17.3
181,0.0
182,0.0
183,0.0
184,0.0
185,0.0
186,1127.6803365095139
187,0.0
188,0.0
189,0.0
190,0.0
191,0.0
192,0.0
193,5.361463049403999
194,5.483640974648625
195,5.110533278182412
196,14.999999999999952
197,14.999999999999952
198,14.999999999999952
563,-1.907739088672364
564,-1.8983648467362234
565,-1.928595814883964
286,3808.477377680129
287,0.0
288,14.999999999999952
289,0.013344152763468299
328,3895.8971872449549
329,0.0
330,14.999999999999952
331,0.013344152763468299
370,5628.80782647201
371,0.0
372,14.999999999999952
373,0.013344152763468299
2,1, 1,21, 0, 6,50.00,60.00,WinterDesignDay
7,-17.3
181,0.0
182,0.0
183,0.0
184,0.0
185,0.0
186,1127.3168432965613
187,0.0
188,0.0
189,0.0
190,0.0
191,0.0
192,0.0
193,5.348582790125477
194,5.470474343561818
195,5.097954432456873
196,14.999999999999666
197,14.999999999999666
198,14.999999999999665
563,-1.908726669625467
564,-1.8993756260503485
565,-1.9295690706752909
286,3814.3568298710708
287,0.0
288,14.999999999999666
289,0.013344152763468299
328,3902.0933991598487
329,0.0
330,14.999999999999666
331,0.013344152763468299
370,5636.981360876402
371,0.0
372,14.999999999999665
373,0.013344152763468299
2,1, 1,21, 0, 7, 0.00,10.00,WinterDesignDay
7,-17.3
181,0.0
182,0.0
183,0.0
184,0.0
185,0.0
186,1126.79917786728
187,0.0
188,0.0
189,0.0
190,0.0
191,0.0
192,0.0
193,5.337217665434492
194,5.469822381418358
195,5.09153557347219
196,14.999999999999629
197,14.999999999999638
198,14.999999999999629
563,-1.911035502734589
564,-1.899425672567025
565,-1.9300656657335683
286,3797.118875505594
287,0.0
288,14.999999999999629
289,0.013344152763468299
328,3749.2056072138077
329,0.0
330,14.999999999999638
331,0.013344152763468299
370,5532.767421354436
371,0.0
372,14.999999999999629
373,0.013344152763468299
2,1, 1,21, 0, 7,10.00,20.00,WinterDesignDay
7,-17.3
181,0.0
182,0.0
183,0.0
184,0.0
185,0.0
186,1126.4307702020138
187,0.0
188,0.0
189,0.0
190,0.0
191,0.0
192,0.0
193,5.325300549488985
194,5.46258113480636
195,5.081954592475664
196,14.99999999999995
197,14.999999999999636
198,14.999999999999954
563,-1.9119596733825646
564,-1.8999815097074638
565,-1.9308068385127096
286,3802.435979078186
287,0.0
288,14.99999999999995
289,0.013344152763468299
328,3751.415376967195
329,0.0
330,14.999999999999636
331,0.013344152763468299
370,5538.155986344582
371,0.0
372,14.999999999999954
373,0.013344152763468299
2,1, 1,21, 0, 7,20.00,30.00,WinterDesignDay
7,-17.3
181,0.0
182,0.0
183,0.0
184,0.0
185,0.0
186,1126.0831247139666
187,0.0
188,0.0
189,0.0
190,0.0
191,0.0
192,0.0
193,5.313431986019056
194,5.45422026889595
195,5.0719528665583069
196,14.999999999999666
197,14.999999999999634
198,14.999999999999672
563,-1.9128799684049392
564,-1.9006232382866034
565,-1.9315804831116553
286,3807.799044234491
287,0.0
288,14.999999999999666
289,0.013344152763468299
328,3754.8757773426229
329,0.0
330,14.999999999999634
331,0.013344152763468299
370,5544.314409684523
371,0.0
372,14.999999999999672
373,0.013344152763468299
2,1, 1,21, 0, 7,30.00,40.00,WinterDesignDay
7,-17.3
181,0.0
182,0.0
183,0.0
184,0.0
185,0.0
186,1125.74845109724
187,0.0
188,0.0
189,0.0
190,0.0
191,0.0
192,0.0
193,5.30168911842992
194,5.445392288452747
195,5.061837744237934
196,14.999999999999627
197,14.999999999999636
198,14.999999999999638
563,-1.9137904084870039
564,-1.9013007610848718
565,-1.9323628195914536
286,3813.1141800400348
287,0.0
288,14.999999999999627
289,0.013344152763468299
328,3758.6902174153126
329,0.0
330,14.999999999999636
331,0.013344152763468299
370,5550.633438588598
371,0.0
372,14.999999999999638
373,0.013344152763468299
2,1, 1,21, 0, 7,40.00,50.00,WinterDesignDay
7,-17.3
181,0.0
182,0.0
183,0.0
184,0.0
185,0.0
186,1125.420327135219
187,0.0
188,0.0
189,0.0
190,0.0
191,0.0
192,0.0
193,5.290096370381506
194,5.4363445229656019
195,5.0517228527352648
196,14.999999999999954
197,14.999999999999638
198,14.999999999999629
563,-1.9146891038334327
564,-1.9019950892975426
565,-1.9331450583214603
286,3818.362526923114
287,0.0
288,14.999999999999954
289,0.013344152763468299
328,3762.6652576677399
329,0.0
330,14.999999999999638
331,0.013344152763468299
370,5556.987224199278
371,0.0
372,14.999999999999629
373,0.013344152763468299
2,1, 1,21, 0, 7,50.00,60.00,WinterDesignDay
7,-17.3
181,0.0
182,0.0
183,0.0
184,0.0
185,0.0
186,1125.097233905883
187,0.0
188,0.0
189,0.0
190,0.0
191,0.0
192,0.0
193,5.278663252672493
194,5.427199610540459
195,5.041662714083871
196,14.999999999999666
197,14.999999999999636
198,14.99999999999995
563,-1.9155753213634166
564,-1.90269680833525
565,-1.9339229834755286
286,3823.537669489971
287,0.0
288,14.999999999999666
289,0.013344152763468299
328,3766.7185303982607
329,0.0
330,14.999999999999636
331,0.013344152763468299
370,5563.323970541144
371,0.0
372,14.99999999999995
373,0.013344152763468299
2,1, 1,21, 0, 8, 0.00,10.00,WinterDesignDay
7,-17.3
181,0.0
182,0.0
183,0.0
184,0.0
185,0.0
186,1124.1390348059004
187,0.0
188,0.0
189,0.0
190,0.0
191,0.0
192,0.0
193,5.272593494042563
194,5.482356529793687
195,5.0620041642711339
196,19.957899553123239
197,19.98238978923956
198,19.97348525700372
563,-1.9160457662411393
564,-1.898463457224722
565,-1.9323499487709147
286,6526.676218341571
287,0.0
288,19.957899553123239
289,0.014134922945912749
328,5819.711724363818
329,0.0
330,19.98238978923956
331,0.014088972336219788
370,9090.269931117466
371,0.0
372,19.97348525700372
373,0.014101649952771358
2,1, 1,21, 0, 8,10.00,20.00,WinterDesignDay
7,-17.3
181,0.0
182,0.0
183,0.0
184,0.0
185,0.0
186,1216.95235371965
187,0.0
188,0.0
189,0.0
190,0.0
191,0.0
192,0.0
193,5.624253150744973
194,5.837179172371419
195,5.398820696962875
196,20.000000000001518
197,20.00000000000061
198,20.000000000000598
563,-1.3371456248857812
564,-1.3191930136819892
565,-1.3538621858680873
286,5226.137796197932
287,0.0
288,20.000000000001518
289,0.014812346283578438
328,4517.694701591776
329,0.0
330,20.00000000000061
331,0.014751290511080144
370,7079.002140667188
371,0.0
372,20.000000000000598
373,0.01476297343305063
2,1, 1,21, 0, 8,20.00,30.00,WinterDesignDay
7,-17.3
181,0.0
182,0.0
183,0.0
184,0.0
185,0.0
186,1225.82206226833
187,0.0
188,0.0
189,1.0
190,0.0
191,0.0
192,0.0
193,5.760523200423197
194,6.005682902499904
195,5.551458070467362
196,20.0000000000008
197,20.00000000000054
198,19.99999999999968
563,-1.3040224712661544
564,-1.2865493055997269